
Host: OfficeLinux

Timers On : Wed Feb 24 15:25:25 2021
Timers Off: Wed Feb 24 15:37:49 2021

Wall Time:      744.09 seconds


-----------------------------------------------------------

***********************************************************
